M 0.0 nn 101 x 1000 y 1000 rp leach
M 0.0 sc mit/uAMPS/sims/nodescen cp none seed 0.0
M 0.0 prop Propagation/TwoRayGround ant Antenna/OmniAntenna
s 0.000047803 _45_ AGT  --- 0 tcp 13620 [0 2d000000 0 0] ------- [45:0 -1:0 32 0] [0 0] 0 1
s 0.000211181 _98_ AGT  --- 1 tcp 14393 [0 62000000 0 0] ------- [98:0 -1:0 32 0] [0 0] 0 1
s 0.000228579 _41_ AGT  --- 2 tcp 12596 [0 29000000 0 0] ------- [41:0 -1:0 32 0] [0 0] 0 1
s 0.004872918 _80_ AGT  --- 808333344 audio 740307000 [0 50000000 0 0] ------- [80:0 -1:0 32 0] 
s 0.004916999 _26_ AGT  --- 808333344 audio 740308530 [0 1a000000 0 0] ------- [26:0 -1:0 32 0] 
s 0.004968135 _93_ AGT  --- 808333344 audio 740307769 [0 5d000000 0 0] ------- [93:0 -1:0 32 0] 
s 0.004974276 _31_ AGT  --- 808333344 audio 740307251 [0 1f000000 0 0] ------- [31:0 -1:0 32 0] 
s 0.005003781 _39_ AGT  --- 808333344 audio 740309299 [0 27000000 0 0] ------- [39:0 -1:0 32 0] 
s 0.005027710 _63_ AGT  --- 808333344 audio 740307766 [0 3f000000 0 0] ------- [63:0 -1:0 32 0] 
s 0.005139978 _23_ AGT  --- 808333344 audio 740307762 [0 17000000 0 0] ------- [23:0 -1:0 32 0] 
s 0.005220214 _48_ AGT  --- 808333344 audio 740309044 [0 30000000 0 0] ------- [48:0 -1:0 32 0] 
s 0.005223631 _52_ AGT  --- 808333344 audio 740307509 [0 34000000 0 0] ------- [52:0 -1:0 32 0] 
s 0.005232705 _1_ AGT  --- 808463920 audio 539762737 [0 1000000 0 0] ------- [1:0 -1:0 32 0] 
s 0.005606099 _51_ AGT  --- 808333344 audio 740307253 [0 33000000 0 0] ------- [51:0 -1:0 32 0] 
s 0.005694359 _70_ AGT  --- 808333344 audio 740306999 [0 46000000 0 0] ------- [70:0 -1:0 32 0] 
s 0.005703947 _47_ AGT  --- 808333344 audio 740308788 [0 2f000000 0 0] ------- [47:0 -1:0 32 0] 
s 0.005898245 _65_ AGT  --- 808333344 audio 740308278 [0 41000000 0 0] ------- [65:0 -1:0 32 0] 
s 0.006012730 _95_ AGT  --- 808333344 audio 740308281 [0 5f000000 0 0] ------- [95:0 -1:0 32 0] 
s 0.006455130 _67_ AGT  --- 808333344 audio 740308790 [0 43000000 0 0] ------- [67:0 -1:0 32 0] 
s 0.006468180 _28_ AGT  --- 808333344 audio 740309042 [0 1c000000 0 0] ------- [28:0 -1:0 32 0] 
s 0.006475387 _5_ AGT  --- 808463920 audio 539762741 [0 5000000 0 0] ------- [5:0 -1:0 32 0] 
s 0.006829544 _37_ AGT  --- 808333344 audio 740308787 [0 25000000 0 0] ------- [37:0 -1:0 32 0] 
s 0.006849057 _30_ AGT  --- 808333344 audio 740306995 [0 1e000000 0 0] ------- [30:0 -1:0 32 0] 
s 0.006900363 _49_ AGT  --- 808333344 audio 740309300 [0 31000000 0 0] ------- [49:0 -1:0 32 0] 
s 0.006917033 _24_ AGT  --- 808333344 audio 740308018 [0 18000000 0 0] ------- [24:0 -1:0 32 0] 
s 0.006937032 _10_ AGT  --- 808333344 audio 740306993 [0 a000000 0 0] ------- [10:0 -1:0 32 0] 
s 0.007030950 _58_ AGT  --- 808333344 audio 740309045 [0 3a000000 0 0] ------- [58:0 -1:0 32 0] 
s 0.007122457 _3_ AGT  --- 808463920 audio 539762739 [0 3000000 0 0] ------- [3:0 -1:0 32 0] 
s 0.007125277 _13_ AGT  --- 808333344 audio 740307761 [0 d000000 0 0] ------- [13:0 -1:0 32 0] 
s 0.007360013 _61_ AGT  --- 808333344 audio 740307254 [0 3d000000 0 0] ------- [61:0 -1:0 32 0] 
s 0.007456990 _19_ AGT  --- 808333344 audio 740309297 [0 13000000 0 0] ------- [19:0 -1:0 32 0] 
s 0.007554569 _84_ AGT  --- 808333344 audio 740308024 [0 54000000 0 0] ------- [84:0 -1:0 32 0] 
s 0.007930726 _82_ AGT  --- 808333344 audio 740307512 [0 52000000 0 0] ------- [82:0 -1:0 32 0] 
s 0.008685420 _25_ AGT  --- 808333344 audio 740308274 [0 19000000 0 0] ------- [25:0 -1:0 32 0] 
s 0.008771341 _9_ AGT  --- 808463920 audio 539762745 [0 9000000 0 0] ------- [9:0 -1:0 32 0] 
s 0.008782279 _83_ AGT  --- 808333344 audio 740307768 [0 53000000 0 0] ------- [83:0 -1:0 32 0] 
s 0.008796898 _36_ AGT  --- 808333344 audio 740308531 [0 24000000 0 0] ------- [36:0 -1:0 32 0] 
s 0.008890628 _76_ AGT  --- 808333344 audio 740308535 [0 4c000000 0 0] ------- [76:0 -1:0 32 0] 
s 0.008918325 _35_ AGT  --- 808333344 audio 740308275 [0 23000000 0 0] ------- [35:0 -1:0 32 0] 
s 0.009004633 _20_ AGT  --- 808333344 audio 740306994 [0 14000000 0 0] ------- [20:0 -1:0 32 0] 
s 0.009161542 _74_ AGT  --- 808333344 audio 740308023 [0 4a000000 0 0] ------- [74:0 -1:0 32 0] 
s 0.009262280 _15_ AGT  --- 808333344 audio 740308273 [0 f000000 0 0] ------- [15:0 -1:0 32 0] 
s 0.009605505 _8_ AGT  --- 808463920 audio 539762744 [0 8000000 0 0] ------- [8:0 -1:0 32 0] 
s 0.009756682 _14_ AGT  --- 808333344 audio 740308017 [0 e000000 0 0] ------- [14:0 -1:0 32 0] 
s 0.009789397 _64_ AGT  --- 808333344 audio 740308022 [0 40000000 0 0] ------- [64:0 -1:0 32 0] 
s 0.009816200 _42_ AGT  --- 808333344 audio 740307508 [0 2a000000 0 0] ------- [42:0 -1:0 32 0] 
s 0.009825618 _38_ AGT  --- 808333344 audio 740309043 [0 26000000 0 0] ------- [38:0 -1:0 32 0] 
s 0.009924501 _75_ AGT  --- 808333344 audio 740308279 [0 4b000000 0 0] ------- [75:0 -1:0 32 0] 
s 0.010001034 _62_ AGT  --- 808333344 audio 740307510 [0 3e000000 0 0] ------- [62:0 -1:0 32 0] 
s 0.010087190 _22_ AGT  --- 808333344 audio 740307506 [0 16000000 0 0] ------- [22:0 -1:0 32 0] 
s 0.010232757 _57_ AGT  --- 808333344 audio 740308789 [0 39000000 0 0] ------- [57:0 -1:0 32 0] 
s 0.010359935 _69_ AGT  --- 808333344 audio 740309302 [0 45000000 0 0] ------- [69:0 -1:0 32 0] 
s 0.010429903 _2_ AGT  --- 808463920 audio 539762738 [0 2000000 0 0] ------- [2:0 -1:0 32 0] 
s 0.010614203 _53_ AGT  --- 808333344 audio 740307765 [0 35000000 0 0] ------- [53:0 -1:0 32 0] 
s 0.010885415 _33_ AGT  --- 808333344 audio 740307763 [0 21000000 0 0] ------- [33:0 -1:0 32 0] 
s 0.010945366 _34_ AGT  --- 808333344 audio 740308019 [0 22000000 0 0] ------- [34:0 -1:0 32 0] 
s 0.010972612 _72_ AGT  --- 808333344 audio 740307511 [0 48000000 0 0] ------- [72:0 -1:0 32 0] 
s 0.011015926 _68_ AGT  --- 808333344 audio 740309046 [0 44000000 0 0] ------- [68:0 -1:0 32 0] 
s 0.011027753 _55_ AGT  --- 808333344 audio 740308277 [0 37000000 0 0] ------- [55:0 -1:0 32 0] 
s 0.011085642 _0_ AGT  --- 808463920 audio 539762736 [0 0 0 0] ------- [0:0 -1:0 32 0] 
s 0.011200410 _96_ AGT  --- 808333344 audio 740308537 [0 60000000 0 0] ------- [96:0 -1:0 32 0] 
s 0.011323546 _43_ AGT  --- 808333344 audio 740307764 [0 2b000000 0 0] ------- [43:0 -1:0 32 0] 
s 0.011324177 _11_ AGT  --- 808333344 audio 740307249 [0 b000000 0 0] ------- [11:0 -1:0 32 0] 
s 0.011470483 _87_ AGT  --- 808333344 audio 740308792 [0 57000000 0 0] ------- [87:0 -1:0 32 0] 
s 0.011633826 _4_ AGT  --- 808463920 audio 539762740 [0 4000000 0 0] ------- [4:0 -1:0 32 0] 
s 0.011711968 _81_ AGT  --- 808333344 audio 740307256 [0 51000000 0 0] ------- [81:0 -1:0 32 0] 
s 0.011810314 _99_ AGT  --- 808333344 audio 740309305 [0 63000000 0 0] ------- [99:0 -1:0 32 0] 
s 0.011887637 _18_ AGT  --- 808333344 audio 740309041 [0 12000000 0 0] ------- [18:0 -1:0 32 0] 
s 0.012058322 _71_ AGT  --- 808333344 audio 740307255 [0 47000000 0 0] ------- [71:0 -1:0 32 0] 
s 0.012219835 _54_ AGT  --- 808333344 audio 740308021 [0 36000000 0 0] ------- [54:0 -1:0 32 0] 
s 0.012310331 _77_ AGT  --- 808333344 audio 740308791 [0 4d000000 0 0] ------- [77:0 -1:0 32 0] 
s 0.012319363 _73_ AGT  --- 808333344 audio 740307767 [0 49000000 0 0] ------- [73:0 -1:0 32 0] 
s 0.012493949 _32_ AGT  --- 808333344 audio 740307507 [0 20000000 0 0] ------- [32:0 -1:0 32 0] 
s 0.012757880 _88_ AGT  --- 808333344 audio 740309048 [0 58000000 0 0] ------- [88:0 -1:0 32 0] 
s 0.012896868 _40_ AGT  --- 808333344 audio 740306996 [0 28000000 0 0] ------- [40:0 -1:0 32 0] 
s 0.013114189 _7_ AGT  --- 808463920 audio 539762743 [0 7000000 0 0] ------- [7:0 -1:0 32 0] 
s 0.013120863 _21_ AGT  --- 808333344 audio 740307250 [0 15000000 0 0] ------- [21:0 -1:0 32 0] 
s 0.013141365 _78_ AGT  --- 808333344 audio 740309047 [0 4e000000 0 0] ------- [78:0 -1:0 32 0] 
s 0.013183685 _59_ AGT  --- 808333344 audio 740309301 [0 3b000000 0 0] ------- [59:0 -1:0 32 0] 
s 0.013417508 _56_ AGT  --- 808333344 audio 740308533 [0 38000000 0 0] ------- [56:0 -1:0 32 0] 
s 0.013456455 _94_ AGT  --- 808333344 audio 740308025 [0 5e000000 0 0] ------- [94:0 -1:0 32 0] 
s 0.013492346 _6_ AGT  --- 808463920 audio 539762742 [0 6000000 0 0] ------- [6:0 -1:0 32 0] 
s 0.013522143 _97_ AGT  --- 808333344 audio 740308793 [0 61000000 0 0] ------- [97:0 -1:0 32 0] 
s 0.013526040 _50_ AGT  --- 808333344 audio 740306997 [0 32000000 0 0] ------- [50:0 -1:0 32 0] 
s 0.013591271 _90_ AGT  --- 808333344 audio 740307001 [0 5a000000 0 0] ------- [90:0 -1:0 32 0] 
s 0.013763506 _79_ AGT  --- 808333344 audio 740309303 [0 4f000000 0 0] ------- [79:0 -1:0 32 0] 
s 0.013818877 _44_ AGT  --- 808333344 audio 740308020 [0 2c000000 0 0] ------- [44:0 -1:0 32 0] 
s 0.013978559 _92_ AGT  --- 808333344 audio 740307513 [0 5c000000 0 0] ------- [92:0 -1:0 32 0] 
s 0.014049881 _46_ AGT  --- 808333344 audio 740308532 [0 2e000000 0 0] ------- [46:0 -1:0 32 0] 
s 0.014191688 _86_ AGT  --- 808333344 audio 740308536 [0 56000000 0 0] ------- [86:0 -1:0 32 0] 
s 0.014242320 _91_ AGT  --- 808333344 audio 740307257 [0 5b000000 0 0] ------- [91:0 -1:0 32 0] 
s 0.014434378 _60_ AGT  --- 808333344 audio 740306998 [0 3c000000 0 0] ------- [60:0 -1:0 32 0] 
s 0.014443287 _89_ AGT  --- 808333344 audio 740309304 [0 59000000 0 0] ------- [89:0 -1:0 32 0] 
s 0.014450657 _27_ AGT  --- 808333344 audio 740308786 [0 1b000000 0 0] ------- [27:0 -1:0 32 0] 
s 0.014485127 _17_ AGT  --- 808333344 audio 740308785 [0 11000000 0 0] ------- [17:0 -1:0 32 0] 
s 0.014569288 _29_ AGT  --- 808333344 audio 740309298 [0 1d000000 0 0] ------- [29:0 -1:0 32 0] 
s 0.014639791 _85_ AGT  --- 808333344 audio 740308280 [0 55000000 0 0] ------- [85:0 -1:0 32 0] 
s 0.014688744 _66_ AGT  --- 808333344 audio 740308534 [0 42000000 0 0] ------- [66:0 -1:0 32 0] 
s 0.014782153 _16_ AGT  --- 808333344 audio 740308529 [0 10000000 0 0] ------- [16:0 -1:0 32 0] 
s 0.014794875 _12_ AGT  --- 808333344 audio 740307505 [0 c000000 0 0] ------- [12:0 -1:0 32 0] 
M 0.10000 0 (65.75, 92.58, 0.00), (0.00, 0.00), 0.00
M 0.10000 1 (21.01, 92.38, 0.00), (0.00, 0.00), 0.00
M 0.10000 2 (37.20, 40.61, 0.00), (0.00, 0.00), 0.00
M 0.10000 3 (71.22, 61.30, 0.00), (0.00, 0.00), 0.00
M 0.10000 4 (35.00, 11.29, 0.00), (0.00, 0.00), 0.00
M 0.10000 5 (34.15, 98.08, 0.00), (0.00, 0.00), 0.00
M 0.10000 6 (75.98, 64.53, 0.00), (0.00, 0.00), 0.00
M 0.10000 7 (94.46, 5.78, 0.00), (0.00, 0.00), 0.00
M 0.10000 8 (83.60, 14.99, 0.00), (0.00, 0.00), 0.00
M 0.10000 9 (21.77, 45.34, 0.00), (0.00, 0.00), 0.00
M 0.10000 10 (8.30, 59.09, 0.00), (0.00, 0.00), 0.00
M 0.10000 11 (94.22, 62.64, 0.00), (0.00, 0.00), 0.00
M 0.10000 12 (41.80, 50.08, 0.00), (0.00, 0.00), 0.00
M 0.10000 13 (18.29, 13.31, 0.00), (0.00, 0.00), 0.00
M 0.10000 14 (70.74, 92.42, 0.00), (0.00, 0.00), 0.00
M 0.10000 15 (48.97, 20.66, 0.00), (0.00, 0.00), 0.00
M 0.10000 16 (50.24, 95.49, 0.00), (0.00, 0.00), 0.00
M 0.10000 17 (18.03, 3.49, 0.00), (0.00, 0.00), 0.00
M 0.10000 18 (94.18, 55.83, 0.00), (0.00, 0.00), 0.00
M 0.10000 19 (77.78, 71.47, 0.00), (0.00, 0.00), 0.00
M 0.10000 20 (93.10, 85.05, 0.00), (0.00, 0.00), 0.00
M 0.10000 21 (67.30, 30.44, 0.00), (0.00, 0.00), 0.00
M 0.10000 22 (84.12, 85.20, 0.00), (0.00, 0.00), 0.00
M 0.10000 23 (77.78, 7.06, 0.00), (0.00, 0.00), 0.00
M 0.10000 24 (37.10, 53.24, 0.00), (0.00, 0.00), 0.00
M 0.10000 25 (76.71, 56.07, 0.00), (0.00, 0.00), 0.00
M 0.10000 26 (50.02, 8.01, 0.00), (0.00, 0.00), 0.00
M 0.10000 27 (21.16, 97.64, 0.00), (0.00, 0.00), 0.00
M 0.10000 28 (14.57, 31.15, 0.00), (0.00, 0.00), 0.00
M 0.10000 29 (79.97, 11.28, 0.00), (0.00, 0.00), 0.00
M 0.10000 30 (21.55, 18.75, 0.00), (0.00, 0.00), 0.00
M 0.10000 31 (88.57, 38.21, 0.00), (0.00, 0.00), 0.00
M 0.10000 32 (58.49, 20.34, 0.00), (0.00, 0.00), 0.00
M 0.10000 33 (68.35, 1.71, 0.00), (0.00, 0.00), 0.00
M 0.10000 34 (82.13, 40.98, 0.00), (0.00, 0.00), 0.00
M 0.10000 35 (96.21, 84.70, 0.00), (0.00, 0.00), 0.00
M 0.10000 36 (34.66, 49.29, 0.00), (0.00, 0.00), 0.00
M 0.10000 37 (15.29, 27.00, 0.00), (0.00, 0.00), 0.00
M 0.10000 38 (83.54, 0.55, 0.00), (0.00, 0.00), 0.00
M 0.10000 39 (6.35, 96.56, 0.00), (0.00, 0.00), 0.00
M 0.10000 40 (1.71, 95.38, 0.00), (0.00, 0.00), 0.00
M 0.10000 41 (47.61, 11.59, 0.00), (0.00, 0.00), 0.00
M 0.10000 42 (25.24, 62.86, 0.00), (0.00, 0.00), 0.00
M 0.10000 43 (69.09, 66.53, 0.00), (0.00, 0.00), 0.00
M 0.10000 44 (12.85, 0.28, 0.00), (0.00, 0.00), 0.00
M 0.10000 45 (29.09, 13.72, 0.00), (0.00, 0.00), 0.00
M 0.10000 46 (20.42, 9.13, 0.00), (0.00, 0.00), 0.00
M 0.10000 47 (29.42, 63.51, 0.00), (0.00, 0.00), 0.00
M 0.10000 48 (46.98, 48.26, 0.00), (0.00, 0.00), 0.00
M 0.10000 49 (96.66, 30.13, 0.00), (0.00, 0.00), 0.00
M 0.10000 50 (37.12, 58.36, 0.00), (0.00, 0.00), 0.00
M 0.10000 51 (75.16, 25.44, 0.00), (0.00, 0.00), 0.00
M 0.10000 52 (35.74, 65.58, 0.00), (0.00, 0.00), 0.00
M 0.10000 53 (52.25, 35.18, 0.00), (0.00, 0.00), 0.00
M 0.10000 54 (13.70, 75.49, 0.00), (0.00, 0.00), 0.00
M 0.10000 55 (34.05, 60.86, 0.00), (0.00, 0.00), 0.00
M 0.10000 56 (7.63, 96.29, 0.00), (0.00, 0.00), 0.00
M 0.10000 57 (20.52, 35.40, 0.00), (0.00, 0.00), 0.00
M 0.10000 58 (58.81, 56.10, 0.00), (0.00, 0.00), 0.00
M 0.10000 59 (44.18, 77.65, 0.00), (0.00, 0.00), 0.00
M 0.10000 60 (90.08, 75.24, 0.00), (0.00, 0.00), 0.00
M 0.10000 61 (31.38, 70.38, 0.00), (0.00, 0.00), 0.00
M 0.10000 62 (67.63, 93.73, 0.00), (0.00, 0.00), 0.00
M 0.10000 63 (60.76, 41.26, 0.00), (0.00, 0.00), 0.00
M 0.10000 64 (33.04, 84.06, 0.00), (0.00, 0.00), 0.00
M 0.10000 65 (44.26, 96.49, 0.00), (0.00, 0.00), 0.00
M 0.10000 66 (25.30, 65.97, 0.00), (0.00, 0.00), 0.00
M 0.10000 67 (20.01, 2.92, 0.00), (0.00, 0.00), 0.00
M 0.10000 68 (83.72, 90.21, 0.00), (0.00, 0.00), 0.00
M 0.10000 69 (15.59, 40.99, 0.00), (0.00, 0.00), 0.00
M 0.10000 70 (82.73, 1.19, 0.00), (0.00, 0.00), 0.00
M 0.10000 71 (91.77, 78.18, 0.00), (0.00, 0.00), 0.00
M 0.10000 72 (51.16, 9.06, 0.00), (0.00, 0.00), 0.00
M 0.10000 73 (17.90, 29.27, 0.00), (0.00, 0.00), 0.00
M 0.10000 74 (22.78, 43.37, 0.00), (0.00, 0.00), 0.00
M 0.10000 75 (54.77, 62.77, 0.00), (0.00, 0.00), 0.00
M 0.10000 76 (32.06, 9.92, 0.00), (0.00, 0.00), 0.00
M 0.10000 77 (85.50, 7.08, 0.00), (0.00, 0.00), 0.00
M 0.10000 78 (31.41, 24.32, 0.00), (0.00, 0.00), 0.00
M 0.10000 79 (6.25, 37.70, 0.00), (0.00, 0.00), 0.00
M 0.10000 80 (62.59, 0.26, 0.00), (0.00, 0.00), 0.00
M 0.10000 81 (99.49, 20.37, 0.00), (0.00, 0.00), 0.00
M 0.10000 82 (86.44, 61.28, 0.00), (0.00, 0.00), 0.00
M 0.10000 83 (89.88, 87.23, 0.00), (0.00, 0.00), 0.00
M 0.10000 84 (2.14, 13.54, 0.00), (0.00, 0.00), 0.00
M 0.10000 85 (65.93, 28.50, 0.00), (0.00, 0.00), 0.00
M 0.10000 86 (71.19, 66.51, 0.00), (0.00, 0.00), 0.00
M 0.10000 87 (23.96, 13.90, 0.00), (0.00, 0.00), 0.00
M 0.10000 88 (51.75, 80.39, 0.00), (0.00, 0.00), 0.00
M 0.10000 89 (22.95, 70.96, 0.00), (0.00, 0.00), 0.00
M 0.10000 90 (91.85, 11.50, 0.00), (0.00, 0.00), 0.00
M 0.10000 91 (44.44, 45.20, 0.00), (0.00, 0.00), 0.00
M 0.10000 92 (55.13, 34.48, 0.00), (0.00, 0.00), 0.00
M 0.10000 93 (35.27, 77.10, 0.00), (0.00, 0.00), 0.00
M 0.10000 94 (77.21, 28.78, 0.00), (0.00, 0.00), 0.00
M 0.10000 95 (57.08, 44.25, 0.00), (0.00, 0.00), 0.00
M 0.10000 96 (5.25, 57.76, 0.00), (0.00, 0.00), 0.00
M 0.10000 97 (19.13, 76.77, 0.00), (0.00, 0.00), 0.00
M 0.10000 98 (2.47, 57.53, 0.00), (0.00, 0.00), 0.00
M 0.10000 99 (44.07, 10.72, 0.00), (0.00, 0.00), 0.00
M 0.10000 100 (50.00, 175.00, 0.00), (0.00, 0.00), 0.00
r 0.109217819 _76_ AGT  --- 0 tcp 13620 [0 2d000000 ffff0008 0] ------- [45:0 -1:0 32 0] [0 0] 1 1
r 0.109217820 _87_ AGT  --- 0 tcp 13620 [0 2d000000 ffff0008 0] ------- [45:0 -1:0 32 0] [0 0] 1 1
r 0.109217824 _4_ AGT  --- 0 tcp 13620 [0 2d000000 ffff0008 0] ------- [45:0 -1:0 32 0] [0 0] 1 1
r 0.109217833 _30_ AGT  --- 0 tcp 13620 [0 2d000000 ffff0008 0] ------- [45:0 -1:0 32 0] [0 0] 1 1
r 0.109217836 _46_ AGT  --- 0 tcp 13620 [0 2d000000 ffff0008 0] ------- [45:0 -1:0 32 0] [0 0] 1 1
r 0.109217839 _13_ AGT  --- 0 tcp 13620 [0 2d000000 ffff0008 0] ------- [45:0 -1:0 32 0] [0 0] 1 1
r 0.109217839 _78_ AGT  --- 0 tcp 13620 [0 2d000000 ffff0008 0] ------- [45:0 -1:0 32 0] [0 0] 1 1
r 0.109217850 _67_ AGT  --- 0 tcp 13620 [0 2d000000 ffff0008 0] ------- [45:0 -1:0 32 0] [0 0] 1 1
r 0.109217853 _17_ AGT  --- 0 tcp 13620 [0 2d000000 ffff0008 0] ------- [45:0 -1:0 32 0] [0 0] 1 1
r 0.109217854 _99_ AGT  --- 0 tcp 13620 [0 2d000000 ffff0008 0] ------- [45:0 -1:0 32 0] [0 0] 1 1
r 0.109217865 _41_ AGT  --- 0 tcp 13620 [0 2d000000 ffff0008 0] ------- [45:0 -1:0 32 0] [0 0] 1 1
r 0.109217867 _37_ AGT  --- 0 tcp 13620 [0 2d000000 ffff0008 0] ------- [45:0 -1:0 32 0] [0 0] 1 1
r 0.109217867 _73_ AGT  --- 0 tcp 13620 [0 2d000000 ffff0008 0] ------- [45:0 -1:0 32 0] [0 0] 1 1
r 0.109217873 _15_ AGT  --- 0 tcp 13620 [0 2d000000 ffff0008 0] ------- [45:0 -1:0 32 0] [0 0] 1 1
r 0.109217873 _44_ AGT  --- 0 tcp 13620 [0 2d000000 ffff0008 0] ------- [45:0 -1:0 32 0] [0 0] 1 1
r 0.109217875 _26_ AGT  --- 0 tcp 13620 [0 2d000000 ffff0008 0] ------- [45:0 -1:0 32 0] [0 0] 1 1
r 0.109217878 _72_ AGT  --- 0 tcp 13620 [0 2d000000 ffff0008 0] ------- [45:0 -1:0 32 0] [0 0] 1 1
r 0.109217879 _28_ AGT  --- 0 tcp 13620 [0 2d000000 ffff0008 0] ------- [45:0 -1:0 32 0] [0 0] 1 1
r 0.109217881 _57_ AGT  --- 0 tcp 13620 [0 2d000000 ffff0008 0] ------- [45:0 -1:0 32 0] [0 0] 1 1
r 0.109217893 _84_ AGT  --- 0 tcp 13620 [0 2d000000 ffff0008 0] ------- [45:0 -1:0 32 0] [0 0] 1 1
r 0.109217897 _2_ AGT  --- 0 tcp 13620 [0 2d000000 ffff0008 0] ------- [45:0 -1:0 32 0] [0 0] 1 1
r 0.109217904 _32_ AGT  --- 0 tcp 13620 [0 2d000000 ffff0008 0] ------- [45:0 -1:0 32 0] [0 0] 1 1
r 0.109217904 _74_ AGT  --- 0 tcp 13620 [0 2d000000 ffff0008 0] ------- [45:0 -1:0 32 0] [0 0] 1 1
r 0.109217904 _69_ AGT  --- 0 tcp 13620 [0 2d000000 ffff0008 0] ------- [45:0 -1:0 32 0] [0 0] 1 1
r 0.109217908 _53_ AGT  --- 0 tcp 13620 [0 2d000000 ffff0008 0] ------- [45:0 -1:0 32 0] [0 0] 1 1
r 0.109217911 _9_ AGT  --- 0 tcp 13620 [0 2d000000 ffff0008 0] ------- [45:0 -1:0 32 0] [0 0] 1 1
r 0.109217913 _79_ AGT  --- 0 tcp 13620 [0 2d000000 ffff0008 0] ------- [45:0 -1:0 32 0] [0 0] 1 1
r 0.109217914 _92_ AGT  --- 0 tcp 13620 [0 2d000000 ffff0008 0] ------- [45:0 -1:0 32 0] [0 0] 1 1
r 0.109217920 _91_ AGT  --- 0 tcp 13620 [0 2d000000 ffff0008 0] ------- [45:0 -1:0 32 0] [0 0] 1 1
r 0.109217923 _36_ AGT  --- 0 tcp 13620 [0 2d000000 ffff0008 0] ------- [45:0 -1:0 32 0] [0 0] 1 1
r 0.109217923 _80_ AGT  --- 0 tcp 13620 [0 2d000000 ffff0008 0] ------- [45:0 -1:0 32 0] [0 0] 1 1
r 0.109217931 _12_ AGT  --- 0 tcp 13620 [0 2d000000 ffff0008 0] ------- [45:0 -1:0 32 0] [0 0] 1 1
r 0.109217933 _48_ AGT  --- 0 tcp 13620 [0 2d000000 ffff0008 0] ------- [45:0 -1:0 32 0] [0 0] 1 1
r 0.109217935 _85_ AGT  --- 0 tcp 13620 [0 2d000000 ffff0008 0] ------- [45:0 -1:0 32 0] [0 0] 1 1
r 0.109217937 _24_ AGT  --- 0 tcp 13620 [0 2d000000 ffff0008 0] ------- [45:0 -1:0 32 0] [0 0] 1 1
r 0.109217940 _33_ AGT  --- 0 tcp 13620 [0 2d000000 ffff0008 0] ------- [45:0 -1:0 32 0] [0 0] 1 1
r 0.109217941 _95_ AGT  --- 0 tcp 13620 [0 2d000000 ffff0008 0] ------- [45:0 -1:0 32 0] [0 0] 1 1
r 0.109217942 _21_ AGT  --- 0 tcp 13620 [0 2d000000 ffff0008 0] ------- [45:0 -1:0 32 0] [0 0] 1 1
r 0.109217943 _63_ AGT  --- 0 tcp 13620 [0 2d000000 ffff0008 0] ------- [45:0 -1:0 32 0] [0 0] 1 1
r 0.109217954 _50_ AGT  --- 0 tcp 13620 [0 2d000000 ffff0008 0] ------- [45:0 -1:0 32 0] [0 0] 1 1
r 0.109217961 _55_ AGT  --- 0 tcp 13620 [0 2d000000 ffff0008 0] ------- [45:0 -1:0 32 0] [0 0] 1 1
r 0.109217962 _51_ AGT  --- 0 tcp 13620 [0 2d000000 ffff0008 0] ------- [45:0 -1:0 32 0] [0 0] 1 1
r 0.109217967 _23_ AGT  --- 0 tcp 13620 [0 2d000000 ffff0008 0] ------- [45:0 -1:0 32 0] [0 0] 1 1
r 0.109217967 _42_ AGT  --- 0 tcp 13620 [0 2d000000 ffff0008 0] ------- [45:0 -1:0 32 0] [0 0] 1 1
r 0.109217969 _47_ AGT  --- 0 tcp 13620 [0 2d000000 ffff0008 0] ------- [45:0 -1:0 32 0] [0 0] 1 1
r 0.109217969 _10_ AGT  --- 0 tcp 13620 [0 2d000000 ffff0008 0] ------- [45:0 -1:0 32 0] [0 0] 1 1
r 0.109217970 _96_ AGT  --- 0 tcp 13620 [0 2d000000 ffff0008 0] ------- [45:0 -1:0 32 0] [0 0] 1 1
r 0.109217971 _94_ AGT  --- 0 tcp 13620 [0 2d000000 ffff0008 0] ------- [45:0 -1:0 32 0] [0 0] 1 1
r 0.109217973 _29_ AGT  --- 0 tcp 13620 [0 2d000000 ffff0008 0] ------- [45:0 -1:0 32 0] [0 0] 1 1
r 0.109217974 _98_ AGT  --- 0 tcp 13620 [0 2d000000 ffff0008 0] ------- [45:0 -1:0 32 0] [0 0] 1 1
r 0.109217976 _58_ AGT  --- 0 tcp 13620 [0 2d000000 ffff0008 0] ------- [45:0 -1:0 32 0] [0 0] 1 1
r 0.109217977 _52_ AGT  --- 0 tcp 13620 [0 2d000000 ffff0008 0] ------- [45:0 -1:0 32 0] [0 0] 1 1
r 0.109217978 _66_ AGT  --- 0 tcp 13620 [0 2d000000 ffff0008 0] ------- [45:0 -1:0 32 0] [0 0] 1 1
r 0.109217985 _8_ AGT  --- 0 tcp 13620 [0 2d000000 ffff0008 0] ------- [45:0 -1:0 32 0] [0 0] 1 1
r 0.109217987 _70_ AGT  --- 0 tcp 13620 [0 2d000000 ffff0008 0] ------- [45:0 -1:0 32 0] [0 0] 1 1
r 0.109217988 _75_ AGT  --- 0 tcp 13620 [0 2d000000 ffff0008 0] ------- [45:0 -1:0 32 0] [0 0] 1 1
r 0.109217990 _38_ AGT  --- 0 tcp 13620 [0 2d000000 ffff0008 0] ------- [45:0 -1:0 32 0] [0 0] 1 1
r 0.109217992 _61_ AGT  --- 0 tcp 13620 [0 2d000000 ffff0008 0] ------- [45:0 -1:0 32 0] [0 0] 1 1
r 0.109217992 _77_ AGT  --- 0 tcp 13620 [0 2d000000 ffff0008 0] ------- [45:0 -1:0 32 0] [0 0] 1 1
r 0.109217995 _89_ AGT  --- 0 tcp 13620 [0 2d000000 ffff0008 0] ------- [45:0 -1:0 32 0] [0 0] 1 1
r 0.109218002 _34_ AGT  --- 0 tcp 13620 [0 2d000000 ffff0008 0] ------- [45:0 -1:0 32 0] [0 0] 1 1
r 0.109218012 _90_ AGT  --- 0 tcp 13620 [0 2d000000 ffff0008 0] ------- [45:0 -1:0 32 0] [0 0] 1 1
r 0.109218015 _3_ AGT  --- 0 tcp 13620 [0 2d000000 ffff0008 0] ------- [45:0 -1:0 32 0] [0 0] 1 1
r 0.109218015 _54_ AGT  --- 0 tcp 13620 [0 2d000000 ffff0008 0] ------- [45:0 -1:0 32 0] [0 0] 1 1
r 0.109218015 _93_ AGT  --- 0 tcp 13620 [0 2d000000 ffff0008 0] ------- [45:0 -1:0 32 0] [0 0] 1 1
r 0.109218015 _25_ AGT  --- 0 tcp 13620 [0 2d000000 ffff0008 0] ------- [45:0 -1:0 32 0] [0 0] 1 1
r 0.109218016 _97_ AGT  --- 0 tcp 13620 [0 2d000000 ffff0008 0] ------- [45:0 -1:0 32 0] [0 0] 1 1
r 0.109218017 _31_ AGT  --- 0 tcp 13620 [0 2d000000 ffff0008 0] ------- [45:0 -1:0 32 0] [0 0] 1 1
r 0.109218022 _59_ AGT  --- 0 tcp 13620 [0 2d000000 ffff0008 0] ------- [45:0 -1:0 32 0] [0 0] 1 1
r 0.109218023 _7_ AGT  --- 0 tcp 13620 [0 2d000000 ffff0008 0] ------- [45:0 -1:0 32 0] [0 0] 1 1
r 0.109218024 _43_ AGT  --- 0 tcp 13620 [0 2d000000 ffff0008 0] ------- [45:0 -1:0 32 0] [0 0] 1 1
r 0.109218028 _86_ AGT  --- 0 tcp 13620 [0 2d000000 ffff0008 0] ------- [45:0 -1:0 32 0] [0 0] 1 1
r 0.109218034 _6_ AGT  --- 0 tcp 13620 [0 2d000000 ffff0008 0] ------- [45:0 -1:0 32 0] [0 0] 1 1
r 0.109218035 _49_ AGT  --- 0 tcp 13620 [0 2d000000 ffff0008 0] ------- [45:0 -1:0 32 0] [0 0] 1 1
r 0.109218038 _88_ AGT  --- 0 tcp 13620 [0 2d000000 ffff0008 0] ------- [45:0 -1:0 32 0] [0 0] 1 1
r 0.109218038 _64_ AGT  --- 0 tcp 13620 [0 2d000000 ffff0008 0] ------- [45:0 -1:0 32 0] [0 0] 1 1
r 0.109218039 _81_ AGT  --- 0 tcp 13620 [0 2d000000 ffff0008 0] ------- [45:0 -1:0 32 0] [0 0] 1 1
r 0.109218051 _82_ AGT  --- 0 tcp 13620 [0 2d000000 ffff0008 0] ------- [45:0 -1:0 32 0] [0 0] 1 1
r 0.109218055 _19_ AGT  --- 0 tcp 13620 [0 2d000000 ffff0008 0] ------- [45:0 -1:0 32 0] [0 0] 1 1
r 0.109218061 _18_ AGT  --- 0 tcp 13620 [0 2d000000 ffff0008 0] ------- [45:0 -1:0 32 0] [0 0] 1 1
r 0.109218067 _1_ AGT  --- 0 tcp 13620 [0 2d000000 ffff0008 0] ------- [45:0 -1:0 32 0] [0 0] 1 1
r 0.109218075 _11_ AGT  --- 0 tcp 13620 [0 2d000000 ffff0008 0] ------- [45:0 -1:0 32 0] [0 0] 1 1
r 0.109218084 _65_ AGT  --- 0 tcp 13620 [0 2d000000 ffff0008 0] ------- [45:0 -1:0 32 0] [0 0] 1 1
r 0.109218084 _27_ AGT  --- 0 tcp 13620 [0 2d000000 ffff0008 0] ------- [45:0 -1:0 32 0] [0 0] 1 1
r 0.109218085 _16_ AGT  --- 0 tcp 13620 [0 2d000000 ffff0008 0] ------- [45:0 -1:0 32 0] [0 0] 1 1
r 0.109218085 _5_ AGT  --- 0 tcp 13620 [0 2d000000 ffff0008 0] ------- [45:0 -1:0 32 0] [0 0] 1 1
r 0.109218087 _56_ AGT  --- 0 tcp 13620 [0 2d000000 ffff0008 0] ------- [45:0 -1:0 32 0] [0 0] 1 1
r 0.109218089 _39_ AGT  --- 0 tcp 13620 [0 2d000000 ffff0008 0] ------- [45:0 -1:0 32 0] [0 0] 1 1
r 0.109218090 _40_ AGT  --- 0 tcp 13620 [0 2d000000 ffff0008 0] ------- [45:0 -1:0 32 0] [0 0] 1 1
r 0.109218092 _60_ AGT  --- 0 tcp 13620 [0 2d000000 ffff0008 0] ------- [45:0 -1:0 32 0] [0 0] 1 1
r 0.109218093 _0_ AGT  --- 0 tcp 13620 [0 2d000000 ffff0008 0] ------- [45:0 -1:0 32 0] [0 0] 1 1
r 0.109218099 _62_ AGT  --- 0 tcp 13620 [0 2d000000 ffff0008 0] ------- [45:0 -1:0 32 0] [0 0] 1 1
r 0.109218100 _14_ AGT  --- 0 tcp 13620 [0 2d000000 ffff0008 0] ------- [45:0 -1:0 32 0] [0 0] 1 1
r 0.109218103 _71_ AGT  --- 0 tcp 13620 [0 2d000000 ffff0008 0] ------- [45:0 -1:0 32 0] [0 0] 1 1
r 0.109218104 _22_ AGT  --- 0 tcp 13620 [0 2d000000 ffff0008 0] ------- [45:0 -1:0 32 0] [0 0] 1 1
r 0.109218116 _68_ AGT  --- 0 tcp 13620 [0 2d000000 ffff0008 0] ------- [45:0 -1:0 32 0] [0 0] 1 1
r 0.109218121 _83_ AGT  --- 0 tcp 13620 [0 2d000000 ffff0008 0] ------- [45:0 -1:0 32 0] [0 0] 1 1
r 0.109218123 _20_ AGT  --- 0 tcp 13620 [0 2d000000 ffff0008 0] ------- [45:0 -1:0 32 0] [0 0] 1 1
r 0.109218129 _35_ AGT  --- 0 tcp 13620 [0 2d000000 ffff0008 0] ------- [45:0 -1:0 32 0] [0 0] 1 1
M 0.20000 0 (65.75, 92.58, 0.00), (0.00, 0.00), 0.00
M 0.20000 1 (21.01, 92.38, 0.00), (0.00, 0.00), 0.00
M 0.20000 2 (37.20, 40.61, 0.00), (0.00, 0.00), 0.00
M 0.20000 3 (71.22, 61.30, 0.00), (0.00, 0.00), 0.00
M 0.20000 4 (35.00, 11.29, 0.00), (0.00, 0.00), 0.00
M 0.20000 5 (34.15, 98.08, 0.00), (0.00, 0.00), 0.00
M 0.20000 6 (75.98, 64.53, 0.00), (0.00, 0.00), 0.00
M 0.20000 7 (94.46, 5.78, 0.00), (0.00, 0.00), 0.00
M 0.20000 8 (83.60, 14.99, 0.00), (0.00, 0.00), 0.00
M 0.20000 9 (21.77, 45.34, 0.00), (0.00, 0.00), 0.00
M 0.20000 10 (8.30, 59.09, 0.00), (0.00, 0.00), 0.00
M 0.20000 11 (94.22, 62.64, 0.00), (0.00, 0.00), 0.00
M 0.20000 12 (41.80, 50.08, 0.00), (0.00, 0.00), 0.00
M 0.20000 13 (18.29, 13.31, 0.00), (0.00, 0.00), 0.00
M 0.20000 14 (70.74, 92.42, 0.00), (0.00, 0.00), 0.00
M 0.20000 15 (48.97, 20.66, 0.00), (0.00, 0.00), 0.00
M 0.20000 16 (50.24, 95.49, 0.00), (0.00, 0.00), 0.00
M 0.20000 17 (18.03, 3.49, 0.00), (0.00, 0.00), 0.00
M 0.20000 18 (94.18, 55.83, 0.00), (0.00, 0.00), 0.00
M 0.20000 19 (77.78, 71.47, 0.00), (0.00, 0.00), 0.00
M 0.20000 20 (93.10, 85.05, 0.00), (0.00, 0.00), 0.00
M 0.20000 21 (67.30, 30.44, 0.00), (0.00, 0.00), 0.00
M 0.20000 22 (84.12, 85.20, 0.00), (0.00, 0.00), 0.00
M 0.20000 23 (77.78, 7.06, 0.00), (0.00, 0.00), 0.00
M 0.20000 24 (37.10, 53.24, 0.00), (0.00, 0.00), 0.00
M 0.20000 25 (76.71, 56.07, 0.00), (0.00, 0.00), 0.00
M 0.20000 26 (50.02, 8.01, 0.00), (0.00, 0.00), 0.00
M 0.20000 27 (21.16, 97.64, 0.00), (0.00, 0.00), 0.00
M 0.20000 28 (14.57, 31.15, 0.00), (0.00, 0.00), 0.00
M 0.20000 29 (79.97, 11.28, 0.00), (0.00, 0.00), 0.00
M 0.20000 30 (21.55, 18.75, 0.00), (0.00, 0.00), 0.00
M 0.20000 31 (88.57, 38.21, 0.00), (0.00, 0.00), 0.00
M 0.20000 32 (58.49, 20.34, 0.00), (0.00, 0.00), 0.00
M 0.20000 33 (68.35, 1.71, 0.00), (0.00, 0.00), 0.00
M 0.20000 34 (82.13, 40.98, 0.00), (0.00, 0.00), 0.00
M 0.20000 35 (96.21, 84.70, 0.00), (0.00, 0.00), 0.00
M 0.20000 36 (34.66, 49.29, 0.00), (0.00, 0.00), 0.00
M 0.20000 37 (15.29, 27.00, 0.00), (0.00, 0.00), 0.00
M 0.20000 38 (83.54, 0.55, 0.00), (0.00, 0.00), 0.00
M 0.20000 39 (6.35, 96.56, 0.00), (0.00, 0.00), 0.00
M 0.20000 40 (1.71, 95.38, 0.00), (0.00, 0.00), 0.00
M 0.20000 41 (47.61, 11.59, 0.00), (0.00, 0.00), 0.00
M 0.20000 42 (25.24, 62.86, 0.00), (0.00, 0.00), 0.00
M 0.20000 43 (69.09, 66.53, 0.00), (0.00, 0.00), 0.00
M 0.20000 44 (12.85, 0.28, 0.00), (0.00, 0.00), 0.00
M 0.20000 45 (29.09, 13.72, 0.00), (0.00, 0.00), 0.00
M 0.20000 46 (20.42, 9.13, 0.00), (0.00, 0.00), 0.00
M 0.20000 47 (29.42, 63.51, 0.00), (0.00, 0.00), 0.00
M 0.20000 48 (46.98, 48.26, 0.00), (0.00, 0.00), 0.00
M 0.20000 49 (96.66, 30.13, 0.00), (0.00, 0.00), 0.00
M 0.20000 50 (37.12, 58.36, 0.00), (0.00, 0.00), 0.00
M 0.20000 51 (75.16, 25.44, 0.00), (0.00, 0.00), 0.00
M 0.20000 52 (35.74, 65.58, 0.00), (0.00, 0.00), 0.00
M 0.20000 53 (52.25, 35.18, 0.00), (0.00, 0.00), 0.00
M 0.20000 54 (13.70, 75.49, 0.00), (0.00, 0.00), 0.00
M 0.20000 55 (34.05, 60.86, 0.00), (0.00, 0.00), 0.00
M 0.20000 56 (7.63, 96.29, 0.00), (0.00, 0.00), 0.00
M 0.20000 57 (20.52, 35.40, 0.00), (0.00, 0.00), 0.00
M 0.20000 58 (58.81, 56.10, 0.00), (0.00, 0.00), 0.00
M 0.20000 59 (44.18, 77.65, 0.00), (0.00, 0.00), 0.00
M 0.20000 60 (90.08, 75.24, 0.00), (0.00, 0.00), 0.00
M 0.20000 61 (31.38, 70.38, 0.00), (0.00, 0.00), 0.00
M 0.20000 62 (67.63, 93.73, 0.00), (0.00, 0.00), 0.00
M 0.20000 63 (60.76, 41.26, 0.00), (0.00, 0.00), 0.00
M 0.20000 64 (33.04, 84.06, 0.00), (0.00, 0.00), 0.00
M 0.20000 65 (44.26, 96.49, 0.00), (0.00, 0.00), 0.00
M 0.20000 66 (25.30, 65.97, 0.00), (0.00, 0.00), 0.00
M 0.20000 67 (20.01, 2.92, 0.00), (0.00, 0.00), 0.00
M 0.20000 68 (83.72, 90.21, 0.00), (0.00, 0.00), 0.00
M 0.20000 69 (15.59, 40.99, 0.00), (0.00, 0.00), 0.00
M 0.20000 70 (82.73, 1.19, 0.00), (0.00, 0.00), 0.00
M 0.20000 71 (91.77, 78.18, 0.00), (0.00, 0.00), 0.00
M 0.20000 72 (51.16, 9.06, 0.00), (0.00, 0.00), 0.00
M 0.20000 73 (17.90, 29.27, 0.00), (0.00, 0.00), 0.00
M 0.20000 74 (22.78, 43.37, 0.00), (0.00, 0.00), 0.00
M 0.20000 75 (54.77, 62.77, 0.00), (0.00, 0.00), 0.00
M 0.20000 76 (32.06, 9.92, 0.00), (0.00, 0.00), 0.00
M 0.20000 77 (85.50, 7.08, 0.00), (0.00, 0.00), 0.00
M 0.20000 78 (31.41, 24.32, 0.00), (0.00, 0.00), 0.00
M 0.20000 79 (6.25, 37.70, 0.00), (0.00, 0.00), 0.00
M 0.20000 80 (62.59, 0.26, 0.00), (0.00, 0.00), 0.00
M 0.20000 81 (99.49, 20.37, 0.00), (0.00, 0.00), 0.00
M 0.20000 82 (86.44, 61.28, 0.00), (0.00, 0.00), 0.00
M 0.20000 83 (89.88, 87.23, 0.00), (0.00, 0.00), 0.00
M 0.20000 84 (2.14, 13.54, 0.00), (0.00, 0.00), 0.00
M 0.20000 85 (65.93, 28.50, 0.00), (0.00, 0.00), 0.00
M 0.20000 86 (71.19, 66.51, 0.00), (0.00, 0.00), 0.00
M 0.20000 87 (23.96, 13.90, 0.00), (0.00, 0.00), 0.00
M 0.20000 88 (51.75, 80.39, 0.00), (0.00, 0.00), 0.00
M 0.20000 89 (22.95, 70.96, 0.00), (0.00, 0.00), 0.00
M 0.20000 90 (91.85, 11.50, 0.00), (0.00, 0.00), 0.00
M 0.20000 91 (44.44, 45.20, 0.00), (0.00, 0.00), 0.00
M 0.20000 92 (55.13, 34.48, 0.00), (0.00, 0.00), 0.00